 # Hcp Zr with box vectors H1=[2-1-10], H2=[-12-10], H3=[0001].
 
          16  atoms
6 atom types
 
      0.000000000000       6.464000000000  xlo xhi
      0.000000000000       5.597988210063  ylo yhi
      0.000000000000      10.294000000000  zlo zhi
     -3.232000000000       0.000000000000       0.000000000000  xy xz yz
 
Masses

1 26.981539
2 95.95
3 92.90638
4 180.94788
5 47.867
6 91.224

Atoms # atomic
 
         1    1        0.000000000000       0.000000000000       0.000000000000
         2    1        0.000000000000       1.865996070021       2.573500000000
         3    1        3.232000000000       0.000000000000       0.000000000000
         4    1        3.232000000000       1.865996070021       2.573500000000
         5    1       -1.616000000000       2.798994105031       0.000000000000
         6    1       -1.616000000000       4.664990175052       2.573500000000
         7    1        1.616000000000       2.798994105031       0.000000000000
         8    1        1.616000000000       4.664990175052       2.573500000000
         9    1        0.000000000000       0.000000000000       5.147000000000
        10    1        0.000000000000       1.865996070021       7.720500000000
        11    1        3.232000000000       0.000000000000       5.147000000000
        12    1        3.232000000000       1.865996070021       7.720500000000
        13    1       -1.616000000000       2.798994105031       5.147000000000
        14    1       -1.616000000000       4.664990175052       7.720500000000
        15    1        1.616000000000       2.798994105031       5.147000000000
        16    1        1.616000000000       4.664990175052       7.720500000000
