 # Fcc TaTi alloy oriented X=[100] Y=[010] Z=[001].
 
           4  atoms
10 atom types
 
      0.000000000000       5.000000000000  xlo xhi
      0.000000000000       5.000000000000  ylo yhi
      0.000000000000       5.000000000000  zlo zhi
 
Masses

1 58.933
2 51.9961
3 55.845
4 178.49
5 54.938
6 92.90638
7 58.693
8 180.94788
9 47.867
10 91.224

Atoms # atomic
 
         1    1        0.000000000000       0.000000000000       0.000000000000
         2    1        2.500000000000       2.500000000000       0.000000000000
         3    2        0.000000000000       2.500000000000       2.500000000000
         4    2        2.500000000000       0.000000000000       2.500000000000
